#------------------------------------------------------------------------------
#$Date: 2016-02-20 02:53:41 +0200 (Sat, 20 Feb 2016) $
#$Revision: 176768 $
#$URL: svn://www.crystallography.net/cod/cif/2/10/05/2100572.cif $
#------------------------------------------------------------------------------
#
# This file is available in the Crystallography Open Database (COD),
# http://www.crystallography.net/. The original data for this entry
# were provided by IUCr Journals, http://journals.iucr.org/.
#
# The file may be used within the scientific community so long as
# proper attribution is given to the journal article from which the
# data were obtained.
#
data_2100572
loop_
_publ_author_name
'Kennedy, Brendan J.'
'Howard, Christopher J.'
'Knight, Kevin S.'
'Zhang, Zhaoming'
'Zhou, Qingdi'
_publ_section_title
;
 Structures and phase transitions in the ordered double perovskites
 Ba~2~Bi^III^Bi^V^O~6~ and Ba~2~Bi^III^Sb^V^O~6~
;
_journal_issue                   4
_journal_name_full               'Acta Crystallographica Section B'
_journal_page_first              537
_journal_page_last               546
_journal_paper_doi               10.1107/S0108768106018842
_journal_volume                  62
_journal_year                    2006
_chemical_formula_sum            'Ba Bi O3'
_chemical_formula_weight         394.31
_space_group_IT_number           225
_symmetry_cell_setting           cubic
_symmetry_space_group_name_Hall  '-F 4 2 3'
_symmetry_space_group_name_H-M   'F m -3 m'
_cell_angle_alpha                90.0
_cell_angle_beta                 90.0
_cell_angle_gamma                90.0
_cell_formula_units_Z            8
_cell_length_a                   8.77586(15)
_cell_length_b                   8.77586
_cell_length_c                   8.77586
_cell_volume                     675.879(12)
_cod_data_source_file            ws5040.cif
_cod_data_source_block           BABIO3_893K_phase_1
_cod_depositor_comments
;
The following automatic conversions were performed:
'_geom_bond_publ_flag' value 'N' changed to 'n' according to
'/home/saulius/struct/CIF-dictionaries/cif_core.dic' dictionary named
'cif_core.dic' version 2.4.1 from 2010-06-29 (60
times).

'_geom_angle_publ_flag' value 'N' changed to 'n' according to
'/home/saulius/struct/CIF-dictionaries/cif_core.dic' dictionary named
'cif_core.dic' version 2.4.1 from 2010-06-29 (497 times).

Automatic conversion script
Id: cif_fix_enum 1527 2010-12-29 10:47:43Z saulius 

The following automatic conversions were performed:

'_geom_bond_publ_flag' value 'N' changed to 'n' according to
/home/saulius/struct/CIF-dictionaries/cif_core.dic dictionary named
'cif_core.dic' version 2.4.1 from 2010-06-29 (60
times).

'_geom_angle_publ_flag' value 'N' changed to 'n' according
to /home/saulius/struct/CIF-dictionaries/cif_core.dic dictionary
named 'cif_core.dic' version 2.4.1 from 2010-06-29 (497 times).

Automatic conversion script
Id: cif_fix_values 1715 2011-07-08 13:25:40Z adriana 
;
_cod_original_cell_volume        675.88(4)
_cod_database_code               2100572
loop_
_symmetry_equiv_pos_site_id
_symmetry_equiv_pos_as_xyz
1 +x,+y,+z
2 +z,+x,+y
3 +y,+z,+x
4 +x,+y,-z
5 -z,+x,+y
6 +y,-z,+x
7 -z,+x,-y
8 -y,-z,+x
9 +y,-z,-x
10 -x,+y,-z
11 -z,-x,+y
12 +x,-y,-z
13 +y,+x,+z
14 +z,+y,+x
15 +x,+z,+y
16 +y,+x,-z
17 -z,+y,+x
18 +x,-z,+y
19 -z,+y,-x
20 -x,-z,+y
21 +x,-z,-y
22 -y,+x,-z
23 -z,-y,+x
24 +y,-x,-z
-1 -x,-y,-z
-2 -z,-x,-y
-3 -y,-z,-x
-4 -x,-y,+z
-5 +z,-x,-y
-6 -y,+z,-x
-7 +z,-x,+y
-8 +y,+z,-x
-9 -y,+z,+x
-10 +x,-y,+z
-11 +z,+x,-y
-12 -x,+y,+z
-13 -y,-x,-z
-14 -z,-y,-x
-15 -x,-z,-y
-16 -y,-x,+z
-17 +z,-y,-x
-18 -x,+z,-y
-19 +z,-y,+x
-20 +x,+z,-y
-21 -x,+z,+y
-22 +y,-x,+z
-23 +z,+y,-x
-24 -y,+x,+z
101 +x,+y+1/2,+z+1/2
102 +z,+x+1/2,+y+1/2
103 +y,+z+1/2,+x+1/2
104 +x,+y+1/2,-z+1/2
105 -z,+x+1/2,+y+1/2
106 +y,-z+1/2,+x+1/2
107 -z,+x+1/2,-y+1/2
108 -y,-z+1/2,+x+1/2
109 +y,-z+1/2,-x+1/2
110 -x,+y+1/2,-z+1/2
111 -z,-x+1/2,+y+1/2
112 +x,-y+1/2,-z+1/2
113 +y,+x+1/2,+z+1/2
114 +z,+y+1/2,+x+1/2
115 +x,+z+1/2,+y+1/2
116 +y,+x+1/2,-z+1/2
117 -z,+y+1/2,+x+1/2
118 +x,-z+1/2,+y+1/2
119 -z,+y+1/2,-x+1/2
120 -x,-z+1/2,+y+1/2
121 +x,-z+1/2,-y+1/2
122 -y,+x+1/2,-z+1/2
123 -z,-y+1/2,+x+1/2
124 +y,-x+1/2,-z+1/2
-101 -x,-y+1/2,-z+1/2
-102 -z,-x+1/2,-y+1/2
-103 -y,-z+1/2,-x+1/2
-104 -x,-y+1/2,+z+1/2
-105 +z,-x+1/2,-y+1/2
-106 -y,+z+1/2,-x+1/2
-107 +z,-x+1/2,+y+1/2
-108 +y,+z+1/2,-x+1/2
-109 -y,+z+1/2,+x+1/2
-110 +x,-y+1/2,+z+1/2
-111 +z,+x+1/2,-y+1/2
-112 -x,+y+1/2,+z+1/2
-113 -y,-x+1/2,-z+1/2
-114 -z,-y+1/2,-x+1/2
-115 -x,-z+1/2,-y+1/2
-116 -y,-x+1/2,+z+1/2
-117 +z,-y+1/2,-x+1/2
-118 -x,+z+1/2,-y+1/2
-119 +z,-y+1/2,+x+1/2
-120 +x,+z+1/2,-y+1/2
-121 -x,+z+1/2,+y+1/2
-122 +y,-x+1/2,+z+1/2
-123 +z,+y+1/2,-x+1/2
-124 -y,+x+1/2,+z+1/2
201 +x+1/2,+y,+z+1/2
202 +z+1/2,+x,+y+1/2
203 +y+1/2,+z,+x+1/2
204 +x+1/2,+y,-z+1/2
205 -z+1/2,+x,+y+1/2
206 +y+1/2,-z,+x+1/2
207 -z+1/2,+x,-y+1/2
208 -y+1/2,-z,+x+1/2
209 +y+1/2,-z,-x+1/2
210 -x+1/2,+y,-z+1/2
211 -z+1/2,-x,+y+1/2
212 +x+1/2,-y,-z+1/2
213 +y+1/2,+x,+z+1/2
214 +z+1/2,+y,+x+1/2
215 +x+1/2,+z,+y+1/2
216 +y+1/2,+x,-z+1/2
217 -z+1/2,+y,+x+1/2
218 +x+1/2,-z,+y+1/2
219 -z+1/2,+y,-x+1/2
220 -x+1/2,-z,+y+1/2
221 +x+1/2,-z,-y+1/2
222 -y+1/2,+x,-z+1/2
223 -z+1/2,-y,+x+1/2
224 +y+1/2,-x,-z+1/2
-201 -x+1/2,-y,-z+1/2
-202 -z+1/2,-x,-y+1/2
-203 -y+1/2,-z,-x+1/2
-204 -x+1/2,-y,+z+1/2
-205 +z+1/2,-x,-y+1/2
-206 -y+1/2,+z,-x+1/2
-207 +z+1/2,-x,+y+1/2
-208 +y+1/2,+z,-x+1/2
-209 -y+1/2,+z,+x+1/2
-210 +x+1/2,-y,+z+1/2
-211 +z+1/2,+x,-y+1/2
-212 -x+1/2,+y,+z+1/2
-213 -y+1/2,-x,-z+1/2
-214 -z+1/2,-y,-x+1/2
-215 -x+1/2,-z,-y+1/2
-216 -y+1/2,-x,+z+1/2
-217 +z+1/2,-y,-x+1/2
-218 -x+1/2,+z,-y+1/2
-219 +z+1/2,-y,+x+1/2
-220 +x+1/2,+z,-y+1/2
-221 -x+1/2,+z,+y+1/2
-222 +y+1/2,-x,+z+1/2
-223 +z+1/2,+y,-x+1/2
-224 -y+1/2,+x,+z+1/2
301 +x+1/2,+y+1/2,+z
302 +z+1/2,+x+1/2,+y
303 +y+1/2,+z+1/2,+x
304 +x+1/2,+y+1/2,-z
305 -z+1/2,+x+1/2,+y
306 +y+1/2,-z+1/2,+x
307 -z+1/2,+x+1/2,-y
308 -y+1/2,-z+1/2,+x
309 +y+1/2,-z+1/2,-x
310 -x+1/2,+y+1/2,-z
311 -z+1/2,-x+1/2,+y
312 +x+1/2,-y+1/2,-z
313 +y+1/2,+x+1/2,+z
314 +z+1/2,+y+1/2,+x
315 +x+1/2,+z+1/2,+y
316 +y+1/2,+x+1/2,-z
317 -z+1/2,+y+1/2,+x
318 +x+1/2,-z+1/2,+y
319 -z+1/2,+y+1/2,-x
320 -x+1/2,-z+1/2,+y
321 +x+1/2,-z+1/2,-y
322 -y+1/2,+x+1/2,-z
323 -z+1/2,-y+1/2,+x
324 +y+1/2,-x+1/2,-z
-301 -x+1/2,-y+1/2,-z
-302 -z+1/2,-x+1/2,-y
-303 -y+1/2,-z+1/2,-x
-304 -x+1/2,-y+1/2,+z
-305 +z+1/2,-x+1/2,-y
-306 -y+1/2,+z+1/2,-x
-307 +z+1/2,-x+1/2,+y
-308 +y+1/2,+z+1/2,-x
-309 -y+1/2,+z+1/2,+x
-310 +x+1/2,-y+1/2,+z
-311 +z+1/2,+x+1/2,-y
-312 -x+1/2,+y+1/2,+z
-313 -y+1/2,-x+1/2,-z
-314 -z+1/2,-y+1/2,-x
-315 -x+1/2,-z+1/2,-y
-316 -y+1/2,-x+1/2,+z
-317 +z+1/2,-y+1/2,-x
-318 -x+1/2,+z+1/2,-y
-319 +z+1/2,-y+1/2,+x
-320 +x+1/2,+z+1/2,-y
-321 -x+1/2,+z+1/2,+y
-322 +y+1/2,-x+1/2,+z
-323 +z+1/2,+y+1/2,-x
-324 -y+1/2,+x+1/2,+z
loop_
_atom_site_aniso_label
_atom_site_aniso_U_11
_atom_site_aniso_U_22
_atom_site_aniso_U_33
_atom_site_aniso_U_12
_atom_site_aniso_U_13
_atom_site_aniso_U_23
O 0.0351(11) 0.1042(9) 0.1042(9) 0.0 0.0 0.0
loop_
_atom_site_type_symbol
_atom_site_label
_atom_site_fract_x
_atom_site_fract_y
_atom_site_fract_z
_atom_site_U_iso_or_equiv
_atom_site_thermal_displace_type
_atom_site_occupancy
Ba Ba 0.25 0.25 0.25 0.0434(7) Uiso 1.0
Bi Bi3 0.0 0.0 0.0 0.0286(10) Uiso 1.0
Bi Bi5 0.5 0.5 0.5 0.0235(10) Uiso 1.0
O O 0.2607(2) 0.0 0.0 0.08113 Uani 1.0
loop_
_atom_type_symbol
Ba
Bi
O
loop_
_geom_angle_atom_site_label_1
_geom_angle_atom_site_label_2
_geom_angle_atom_site_label_3
_geom_angle_site_symmetry_1
_geom_angle_site_symmetry_3
_geom_angle
_geom_angle_publ_flag
Ba Ba Ba 4_555 4_556 180.0 n
Ba Ba Ba 4_555 5_555 90.0 n
Ba Ba Ba 4_555 5_655 90.0 n
Ba Ba Ba 4_555 6_555 90.0 n
Ba Ba Ba 4_555 6_565 90.0 n
Ba Ba Bi3 4_555 1_555 54.7356(7) n
Ba Ba Bi3 4_555 101_555 125.2644(7) n
Ba Ba Bi3 4_555 201_555 125.2644(7) n
Ba Ba Bi3 4_555 301_555 54.7356(7) n
Ba Ba Bi5 4_555 1_555 125.2644(7) n
Ba Ba Bi5 4_555 101_544 54.7356(7) n
Ba Ba Bi5 4_555 201_454 54.7356(7) n
Ba Ba Bi5 4_555 301_445 125.2644(7) n
Ba Ba O 4_555 1_555 45.0264(13) n
Ba Ba O 4_555 2_555 45.0264(13) n
Ba Ba O 4_555 3_555 91.74(4) n
Ba Ba O 4_555 101_555 134.9736(13) n
Ba Ba O 4_555 109_555 88.26(4) n
Ba Ba O 4_555 111_555 134.9736(13) n
Ba Ba O 4_555 202_555 134.9736(13) n
Ba Ba O 4_555 209_555 88.26(4) n
Ba Ba O 4_555 210_555 134.9736(13) n
Ba Ba O 4_555 303_555 91.74(4) n
Ba Ba O 4_555 310_555 45.0264(13) n
Ba Ba Ba 4_556 5_555 90.0 n
Ba Ba Ba 4_556 5_655 90.0 n
Ba Ba Ba 4_556 6_555 90.0 n
Ba Ba Ba 4_556 6_565 90.0 n
Ba Ba Bi3 4_556 1_555 125.2644(7) n
Ba Ba Bi3 4_556 101_555 54.7356(7) n
Ba Ba Bi3 4_556 201_555 54.7356(7) n
Ba Ba Bi3 4_556 301_555 125.2644(7) n
Ba Ba Bi5 4_556 1_555 54.7356(7) n
Ba Ba Bi5 4_556 101_544 125.2644(7) n
Ba Ba Bi5 4_556 201_454 125.2644(7) n
Ba Ba Bi5 4_556 301_445 54.7356(7) n
Ba Ba O 4_556 1_555 134.9736(13) n
Ba Ba O 4_556 2_555 134.9736(13) n
Ba Ba O 4_556 3_555 88.26(4) n
Ba Ba O 4_556 101_555 45.0264(13) n
Ba Ba O 4_556 109_555 91.74(4) n
Ba Ba O 4_556 111_555 45.0264(13) n
Ba Ba O 4_556 202_555 45.0264(13) n
Ba Ba O 4_556 209_555 91.74(4) n
Ba Ba O 4_556 210_555 45.0264(13) n
Ba Ba O 4_556 303_555 88.26(4) n
Ba Ba O 4_556 310_555 134.9736(13) n
Ba Ba Ba 5_555 5_655 180.0 n
Ba Ba Ba 5_555 6_555 90.0 n
Ba Ba Ba 5_555 6_565 90.0 n
Ba Ba Bi3 5_555 1_555 54.7356(3) n
Ba Ba Bi3 5_555 101_555 54.7356(3) n
Ba Ba Bi3 5_555 201_555 125.2644(3) n
Ba Ba Bi3 5_555 301_555 125.2644(3) n
Ba Ba Bi5 5_555 1_555 125.2644(3) n
Ba Ba Bi5 5_555 101_544 125.2644(3) n
Ba Ba Bi5 5_555 201_454 54.7356(3) n
Ba Ba Bi5 5_555 301_445 54.7356(3) n
Ba Ba O 5_555 1_555 91.74(4) n
Ba Ba O 5_555 2_555 45.0264(13) n
Ba Ba O 5_555 3_555 45.0264(11) n
Ba Ba O 5_555 101_555 91.74(4) n
Ba Ba O 5_555 109_555 45.0264(11) n
Ba Ba O 5_555 111_555 45.0264(13) n
Ba Ba O 5_555 202_555 134.9736(13) n
Ba Ba O 5_555 209_555 134.9736(11) n
Ba Ba O 5_555 210_555 88.26(4) n
Ba Ba O 5_555 303_555 134.9736(11) n
Ba Ba O 5_555 310_555 88.26(4) n
Ba Ba Ba 5_655 6_555 90.0 n
Ba Ba Ba 5_655 6_565 90.0 n
Ba Ba Bi3 5_655 1_555 125.2644(3) n
Ba Ba Bi3 5_655 101_555 125.2644(3) n
Ba Ba Bi3 5_655 201_555 54.7356(3) n
Ba Ba Bi3 5_655 301_555 54.7356(3) n
Ba Ba Bi5 5_655 1_555 54.7356(3) n
Ba Ba Bi5 5_655 101_544 54.7356(3) n
Ba Ba Bi5 5_655 201_454 125.2644(3) n
Ba Ba Bi5 5_655 301_445 125.2644(3) n
Ba Ba O 5_655 1_555 88.26(4) n
Ba Ba O 5_655 2_555 134.9736(13) n
Ba Ba O 5_655 3_555 134.9736(11) n
Ba Ba O 5_655 101_555 88.26(4) n
Ba Ba O 5_655 109_555 134.9736(11) n
Ba Ba O 5_655 111_555 134.9736(13) n
Ba Ba O 5_655 202_555 45.0264(13) n
Ba Ba O 5_655 209_555 45.0264(11) n
Ba Ba O 5_655 210_555 91.74(4) n
Ba Ba O 5_655 303_555 45.0264(11) n
Ba Ba O 5_655 310_555 91.74(4) n
Ba Ba Ba 6_555 6_565 180.0 n
Ba Ba Bi3 6_555 1_555 54.7356(3) n
Ba Ba Bi3 6_555 101_555 125.2644(3) n
Ba Ba Bi3 6_555 201_555 54.7356(3) n
Ba Ba Bi3 6_555 301_555 125.2644(3) n
Ba Ba Bi5 6_555 1_555 125.2644(3) n
Ba Ba Bi5 6_555 101_544 54.7356(3) n
Ba Ba Bi5 6_555 201_454 125.2644(3) n
Ba Ba Bi5 6_555 301_445 54.7356(3) n
Ba Ba O 6_555 1_555 45.0264(13) n
Ba Ba O 6_555 2_555 91.74(4) n
Ba Ba O 6_555 3_555 45.0264(11) n
Ba Ba O 6_555 101_555 134.9736(13) n
Ba Ba O 6_555 109_555 134.9736(11) n
Ba Ba O 6_555 111_555 88.26(4) n
Ba Ba O 6_555 202_555 91.74(4) n
Ba Ba O 6_555 209_555 45.0264(11) n
Ba Ba O 6_555 210_555 45.0264(13) n
Ba Ba O 6_555 303_555 134.9736(11) n
Ba Ba O 6_555 310_555 134.9736(13) n
Ba Ba Bi3 6_565 1_555 125.2644(3) n
Ba Ba Bi3 6_565 101_555 54.7356(3) n
Ba Ba Bi3 6_565 201_555 125.2644(3) n
Ba Ba Bi3 6_565 301_555 54.7356(3) n
Ba Ba Bi5 6_565 1_555 54.7356(3) n
Ba Ba Bi5 6_565 101_544 125.2644(3) n
Ba Ba Bi5 6_565 201_454 54.7356(3) n
Ba Ba Bi5 6_565 301_445 125.2644(3) n
Ba Ba O 6_565 1_555 134.9736(13) n
Ba Ba O 6_565 2_555 88.26(4) n
Ba Ba O 6_565 3_555 134.9736(11) n
Ba Ba O 6_565 101_555 45.0264(13) n
Ba Ba O 6_565 109_555 45.0264(11) n
Ba Ba O 6_565 111_555 91.74(4) n
Ba Ba O 6_565 202_555 88.26(4) n
Ba Ba O 6_565 209_555 134.9736(11) n
Ba Ba O 6_565 210_555 134.9736(13) n
Ba Ba O 6_565 303_555 45.0264(11) n
Ba Ba O 6_565 310_555 45.0264(13) n
Bi3 Ba Bi3 1_555 101_555 109.4712(7) n
Bi3 Ba Bi3 1_555 201_555 109.4712(7) n
Bi3 Ba Bi3 1_555 301_555 109.4712(13) n
Bi3 Ba Bi5 1_555 1_555 180.0 n
Bi3 Ba Bi5 1_555 101_544 70.5288(7) n
Bi3 Ba Bi5 1_555 201_454 70.5288(7) n
Bi3 Ba Bi5 1_555 301_445 70.5288(13) n
Bi3 Ba O 1_555 1_555 37.00(4) n
Bi3 Ba O 1_555 2_555 37.00(4) n
Bi3 Ba O 1_555 3_555 37.00(4) n
Bi3 Ba O 1_555 101_555 146.47(4) n
Bi3 Ba O 1_555 109_555 89.00(2) n
Bi3 Ba O 1_555 111_555 89.00(2) n
Bi3 Ba O 1_555 202_555 146.47(4) n
Bi3 Ba O 1_555 209_555 89.00(2) n
Bi3 Ba O 1_555 210_555 89.00(2) n
Bi3 Ba O 1_555 303_555 146.47(4) n
Bi3 Ba O 1_555 310_555 89.00(2) n
Bi3 Ba Bi3 101_555 201_555 109.4712(13) n
Bi3 Ba Bi3 101_555 301_555 109.4712(7) n
Bi3 Ba Bi5 101_555 1_555 70.5288(7) n
Bi3 Ba Bi5 101_555 101_544 180.0 n
Bi3 Ba Bi5 101_555 201_454 70.5288(13) n
Bi3 Ba Bi5 101_555 301_445 70.5288(7) n
Bi3 Ba O 101_555 1_555 146.47(4) n
Bi3 Ba O 101_555 2_555 89.00(2) n
Bi3 Ba O 101_555 3_555 89.00(2) n
Bi3 Ba O 101_555 101_555 37.00(4) n
Bi3 Ba O 101_555 109_555 37.00(4) n
Bi3 Ba O 101_555 111_555 37.00(4) n
Bi3 Ba O 101_555 202_555 89.00(2) n
Bi3 Ba O 101_555 209_555 146.47(4) n
Bi3 Ba O 101_555 210_555 89.00(2) n
Bi3 Ba O 101_555 303_555 89.00(2) n
Bi3 Ba O 101_555 310_555 89.00(2) n
Bi3 Ba Bi3 201_555 301_555 109.4712(7) n
Bi3 Ba Bi5 201_555 1_555 70.5288(7) n
Bi3 Ba Bi5 201_555 101_544 70.5288(13) n
Bi3 Ba Bi5 201_555 201_454 180.0 n
Bi3 Ba Bi5 201_555 301_445 70.5288(7) n
Bi3 Ba O 201_555 1_555 89.00(2) n
Bi3 Ba O 201_555 2_555 146.47(4) n
Bi3 Ba O 201_555 3_555 89.00(2) n
Bi3 Ba O 201_555 101_555 89.00(2) n
Bi3 Ba O 201_555 109_555 146.47(4) n
Bi3 Ba O 201_555 111_555 89.00(2) n
Bi3 Ba O 201_555 202_555 37.00(4) n
Bi3 Ba O 201_555 209_555 37.00(4) n
Bi3 Ba O 201_555 210_555 37.00(4) n
Bi3 Ba O 201_555 303_555 89.00(2) n
Bi3 Ba O 201_555 310_555 146.47(4) n
Bi3 Ba Bi5 301_555 1_555 70.5288(13) n
Bi3 Ba Bi5 301_555 101_544 70.5288(7) n
Bi3 Ba Bi5 301_555 201_454 70.5288(7) n
Bi3 Ba Bi5 301_555 301_445 180.0 n
Bi3 Ba O 301_555 1_555 89.00(2) n
Bi3 Ba O 301_555 2_555 89.00(2) n
Bi3 Ba O 301_555 3_555 146.47(4) n
Bi3 Ba O 301_555 101_555 89.00(2) n
Bi3 Ba O 301_555 109_555 89.00(2) n
Bi3 Ba O 301_555 111_555 146.47(4) n
Bi3 Ba O 301_555 202_555 89.00(2) n
Bi3 Ba O 301_555 209_555 89.00(2) n
Bi3 Ba O 301_555 210_555 146.47(4) n
Bi3 Ba O 301_555 303_555 37.00(4) n
Bi3 Ba O 301_555 310_555 37.00(4) n
Bi5 Ba Bi5 1_555 101_544 109.4712(7) n
Bi5 Ba Bi5 1_555 201_454 109.4712(7) n
Bi5 Ba Bi5 1_555 301_445 109.4712(13) n
Bi5 Ba O 1_555 1_555 143.00(4) n
Bi5 Ba O 1_555 2_555 143.00(4) n
Bi5 Ba O 1_555 3_555 143.00(4) n
Bi5 Ba O 1_555 101_555 33.53(4) n
Bi5 Ba O 1_555 109_555 91.00(2) n
Bi5 Ba O 1_555 111_555 91.00(2) n
Bi5 Ba O 1_555 202_555 33.53(4) n
Bi5 Ba O 1_555 209_555 91.00(2) n
Bi5 Ba O 1_555 210_555 91.00(2) n
Bi5 Ba O 1_555 303_555 33.53(4) n
Bi5 Ba O 1_555 310_555 91.00(2) n
Bi5 Ba Bi5 101_544 201_454 109.4712(13) n
Bi5 Ba Bi5 101_544 301_445 109.4712(7) n
Bi5 Ba O 101_544 1_555 33.53(4) n
Bi5 Ba O 101_544 2_555 91.00(2) n
Bi5 Ba O 101_544 3_555 91.00(2) n
Bi5 Ba O 101_544 101_555 143.00(4) n
Bi5 Ba O 101_544 109_555 143.00(4) n
Bi5 Ba O 101_544 111_555 143.00(4) n
Bi5 Ba O 101_544 202_555 91.00(2) n
Bi5 Ba O 101_544 209_555 33.53(4) n
Bi5 Ba O 101_544 210_555 91.00(2) n
Bi5 Ba O 101_544 303_555 91.00(2) n
Bi5 Ba O 101_544 310_555 91.00(2) n
Bi5 Ba Bi5 201_454 301_445 109.4712(7) n
Bi5 Ba O 201_454 1_555 91.00(2) n
Bi5 Ba O 201_454 2_555 33.53(4) n
Bi5 Ba O 201_454 3_555 91.00(2) n
Bi5 Ba O 201_454 101_555 91.00(2) n
Bi5 Ba O 201_454 109_555 33.53(4) n
Bi5 Ba O 201_454 111_555 91.00(2) n
Bi5 Ba O 201_454 202_555 143.00(4) n
Bi5 Ba O 201_454 209_555 143.00(4) n
Bi5 Ba O 201_454 210_555 143.00(4) n
Bi5 Ba O 201_454 303_555 91.00(2) n
Bi5 Ba O 201_454 310_555 33.53(4) n
Bi5 Ba O 301_445 1_555 91.00(2) n
Bi5 Ba O 301_445 2_555 91.00(2) n
Bi5 Ba O 301_445 3_555 33.53(4) n
Bi5 Ba O 301_445 101_555 91.00(2) n
Bi5 Ba O 301_445 109_555 91.00(2) n
Bi5 Ba O 301_445 111_555 33.53(4) n
Bi5 Ba O 301_445 202_555 91.00(2) n
Bi5 Ba O 301_445 209_555 91.00(2) n
Bi5 Ba O 301_445 210_555 33.53(4) n
Bi5 Ba O 301_445 303_555 143.00(4) n
Bi5 Ba O 301_445 310_555 143.00(4) n
O Ba O 1_555 2_555 62.83(6) n
O Ba O 1_555 3_555 62.83(6) n
O Ba O 1_555 101_555 176.52(7) n
O Ba O 1_555 109_555 119.9695(13) n
O Ba O 1_555 111_555 119.9695(15) n
O Ba O 1_555 202_555 119.9696(15) n
O Ba O 1_555 209_555 57.15(6) n
O Ba O 1_555 210_555 90.053(3) n
O Ba O 1_555 303_555 119.9696(13) n
O Ba O 1_555 310_555 90.053(3) n
O Ba O 2_555 3_555 62.83(6) n
O Ba O 2_555 101_555 119.9696(15) n
O Ba O 2_555 109_555 57.15(6) n
O Ba O 2_555 111_555 90.053(3) n
O Ba O 2_555 202_555 176.52(7) n
O Ba O 2_555 209_555 119.9695(13) n
O Ba O 2_555 210_555 119.9695(15) n
O Ba O 2_555 303_555 119.9696(13) n
O Ba O 2_555 310_555 57.15(6) n
O Ba O 3_555 101_555 119.9696(13) n
O Ba O 3_555 109_555 90.053(2) n
O Ba O 3_555 111_555 57.15(6) n
O Ba O 3_555 202_555 119.9696(13) n
O Ba O 3_555 209_555 90.053(2) n
O Ba O 3_555 210_555 57.15(6) n
O Ba O 3_555 303_555 176.52(7) n
O Ba O 3_555 310_555 119.9695(13) n
O Ba O 101_555 109_555 62.83(6) n
O Ba O 101_555 111_555 62.83(6) n
O Ba O 101_555 202_555 57.15(6) n
O Ba O 101_555 209_555 119.9695(13) n
O Ba O 101_555 210_555 90.053(3) n
O Ba O 101_555 303_555 57.15(6) n
O Ba O 101_555 310_555 90.053(3) n
O Ba O 109_555 111_555 62.83(6) n
O Ba O 109_555 202_555 119.9695(13) n
O Ba O 109_555 209_555 176.52(7) n
O Ba O 109_555 210_555 119.9695(13) n
O Ba O 109_555 303_555 90.053(2) n
O Ba O 109_555 310_555 57.15(6) n
O Ba O 111_555 202_555 90.053(3) n
O Ba O 111_555 209_555 119.9695(13) n
O Ba O 111_555 210_555 57.15(6) n
O Ba O 111_555 303_555 119.9695(13) n
O Ba O 111_555 310_555 119.9695(15) n
O Ba O 202_555 209_555 62.83(6) n
O Ba O 202_555 210_555 62.83(6) n
O Ba O 202_555 303_555 57.15(6) n
O Ba O 202_555 310_555 119.9695(15) n
O Ba O 209_555 210_555 62.83(6) n
O Ba O 209_555 303_555 90.053(2) n
O Ba O 209_555 310_555 119.9695(13) n
O Ba O 210_555 303_555 119.9695(13) n
O Ba O 210_555 310_555 176.52(7) n
O Ba O 303_555 310_555 62.83(6) n
Ba Bi3 Ba 1_555 4_555 70.5288(13) n
Ba Bi3 Ba 1_555 5_555 70.5288(7) n
Ba Bi3 Ba 1_555 6_555 70.5288(7) n
Ba Bi3 Ba 1_555 7_555 109.4712(7) n
Ba Bi3 Ba 1_555 8_555 109.4712(13) n
Ba Bi3 Ba 1_555 9_555 109.4712(7) n
Ba Bi3 Ba 1_555 -1_555 180.0 n
Ba Bi3 O 1_555 1_555 54.7356(3) n
Ba Bi3 O 1_555 2_555 54.7356(3) n
Ba Bi3 O 1_555 3_555 54.7356(7) n
Ba Bi3 O 1_555 9_555 125.2644(7) n
Ba Bi3 O 1_555 10_555 125.2644(3) n
Ba Bi3 O 1_555 11_555 125.2644(3) n
Ba Bi3 Ba 4_555 5_555 109.4712(7) n
Ba Bi3 Ba 4_555 6_555 109.4712(7) n
Ba Bi3 Ba 4_555 7_555 70.5288(7) n
Ba Bi3 Ba 4_555 8_555 180.0 n
Ba Bi3 Ba 4_555 9_555 70.5288(7) n
Ba Bi3 Ba 4_555 -1_555 109.4712(13) n
Ba Bi3 O 4_555 1_555 54.7356(3) n
Ba Bi3 O 4_555 2_555 54.7356(3) n
Ba Bi3 O 4_555 3_555 125.2644(7) n
Ba Bi3 O 4_555 9_555 54.7356(7) n
Ba Bi3 O 4_555 10_555 125.2644(3) n
Ba Bi3 O 4_555 11_555 125.2644(3) n
Ba Bi3 Ba 5_555 6_555 109.4712(13) n
Ba Bi3 Ba 5_555 7_555 70.5288(13) n
Ba Bi3 Ba 5_555 8_555 70.5288(7) n
Ba Bi3 Ba 5_555 9_555 180.0 n
Ba Bi3 Ba 5_555 -1_555 109.4712(7) n
Ba Bi3 O 5_555 1_555 125.2644(3) n
Ba Bi3 O 5_555 2_555 54.7356(3) n
Ba Bi3 O 5_555 3_555 54.7356(7) n
Ba Bi3 O 5_555 9_555 125.2644(7) n
Ba Bi3 O 5_555 10_555 54.7356(3) n
Ba Bi3 O 5_555 11_555 125.2644(3) n
Ba Bi3 Ba 6_555 7_555 180.0 n
Ba Bi3 Ba 6_555 8_555 70.5288(7) n
Ba Bi3 Ba 6_555 9_555 70.5288(13) n
Ba Bi3 Ba 6_555 -1_555 109.4712(7) n
Ba Bi3 O 6_555 1_555 54.7356(3) n
Ba Bi3 O 6_555 2_555 125.2644(3) n
Ba Bi3 O 6_555 3_555 54.7356(7) n
Ba Bi3 O 6_555 9_555 125.2644(7) n
Ba Bi3 O 6_555 10_555 125.2644(3) n
Ba Bi3 O 6_555 11_555 54.7356(3) n
Ba Bi3 Ba 7_555 8_555 109.4712(7) n
Ba Bi3 Ba 7_555 9_555 109.4712(13) n
Ba Bi3 Ba 7_555 -1_555 70.5288(7) n
Ba Bi3 O 7_555 1_555 125.2644(3) n
Ba Bi3 O 7_555 2_555 54.7356(3) n
Ba Bi3 O 7_555 3_555 125.2644(7) n
Ba Bi3 O 7_555 9_555 54.7356(7) n
Ba Bi3 O 7_555 10_555 54.7356(3) n
Ba Bi3 O 7_555 11_555 125.2644(3) n
Ba Bi3 Ba 8_555 9_555 109.4712(7) n
Ba Bi3 Ba 8_555 -1_555 70.5288(13) n
Ba Bi3 O 8_555 1_555 125.2644(3) n
Ba Bi3 O 8_555 2_555 125.2644(3) n
Ba Bi3 O 8_555 3_555 54.7356(7) n
Ba Bi3 O 8_555 9_555 125.2644(7) n
Ba Bi3 O 8_555 10_555 54.7356(3) n
Ba Bi3 O 8_555 11_555 54.7356(3) n
Ba Bi3 Ba 9_555 -1_555 70.5288(7) n
Ba Bi3 O 9_555 1_555 54.7356(3) n
Ba Bi3 O 9_555 2_555 125.2644(3) n
Ba Bi3 O 9_555 3_555 125.2644(7) n
Ba Bi3 O 9_555 9_555 54.7356(7) n
Ba Bi3 O 9_555 10_555 125.2644(3) n
Ba Bi3 O 9_555 11_555 54.7356(3) n
Ba Bi3 O -1_555 1_555 125.2644(3) n
Ba Bi3 O -1_555 2_555 125.2644(3) n
Ba Bi3 O -1_555 3_555 125.2644(7) n
Ba Bi3 O -1_555 9_555 54.7356(7) n
Ba Bi3 O -1_555 10_555 54.7356(3) n
Ba Bi3 O -1_555 11_555 54.7356(3) n
O Bi3 O 1_555 2_555 90.0 n
O Bi3 O 1_555 3_555 90.0 n
O Bi3 O 1_555 9_555 90.0 n
O Bi3 O 1_555 10_555 180.0 n
O Bi3 O 1_555 11_555 90.0 n
O Bi3 O 2_555 3_555 90.0 n
O Bi3 O 2_555 9_555 90.0 n
O Bi3 O 2_555 10_555 90.0 n
O Bi3 O 2_555 11_555 180.0 n
O Bi3 O 3_555 9_555 180.0 n
O Bi3 O 3_555 10_555 90.0 n
O Bi3 O 3_555 11_555 90.0 n
O Bi3 O 9_555 10_555 90.0 n
O Bi3 O 9_555 11_555 90.0 n
O Bi3 O 10_555 11_555 90.0 n
Ba Bi5 Ba 1_555 4_556 70.5288(13) n
Ba Bi5 Ba 1_555 5_655 70.5288(7) n
Ba Bi5 Ba 1_555 6_565 70.5288(7) n
Ba Bi5 Ba 1_555 7_656 109.4712(7) n
Ba Bi5 Ba 1_555 8_665 109.4712(13) n
Ba Bi5 Ba 1_555 9_566 109.4712(7) n
Ba Bi5 Ba 1_555 -1_666 180.0 n
Ba Bi5 O 1_555 101_555 54.7356(3) n
Ba Bi5 O 1_555 110_655 125.2644(3) n
Ba Bi5 O 1_555 202_555 54.7356(3) n
Ba Bi5 O 1_555 211_565 125.2644(3) n
Ba Bi5 O 1_555 303_555 54.7356(7) n
Ba Bi5 O 1_555 309_556 125.2644(7) n
Ba Bi5 Ba 4_556 5_655 109.4712(7) n
Ba Bi5 Ba 4_556 6_565 109.4712(7) n
Ba Bi5 Ba 4_556 7_656 70.5288(7) n
Ba Bi5 Ba 4_556 8_665 180.0 n
Ba Bi5 Ba 4_556 9_566 70.5288(7) n
Ba Bi5 Ba 4_556 -1_666 109.4712(13) n
Ba Bi5 O 4_556 101_555 54.7356(3) n
Ba Bi5 O 4_556 110_655 125.2644(3) n
Ba Bi5 O 4_556 202_555 54.7356(3) n
Ba Bi5 O 4_556 211_565 125.2644(3) n
Ba Bi5 O 4_556 303_555 125.2644(7) n
Ba Bi5 O 4_556 309_556 54.7356(7) n
Ba Bi5 Ba 5_655 6_565 109.4712(13) n
Ba Bi5 Ba 5_655 7_656 70.5288(13) n
Ba Bi5 Ba 5_655 8_665 70.5288(7) n
Ba Bi5 Ba 5_655 9_566 180.0 n
Ba Bi5 Ba 5_655 -1_666 109.4712(7) n
Ba Bi5 O 5_655 101_555 125.2644(3) n
Ba Bi5 O 5_655 110_655 54.7356(3) n
Ba Bi5 O 5_655 202_555 54.7356(3) n
Ba Bi5 O 5_655 211_565 125.2644(3) n
Ba Bi5 O 5_655 303_555 54.7356(7) n
Ba Bi5 O 5_655 309_556 125.2644(7) n
Ba Bi5 Ba 6_565 7_656 180.0 n
Ba Bi5 Ba 6_565 8_665 70.5288(7) n
Ba Bi5 Ba 6_565 9_566 70.5288(13) n
Ba Bi5 Ba 6_565 -1_666 109.4712(7) n
Ba Bi5 O 6_565 101_555 54.7356(3) n
Ba Bi5 O 6_565 110_655 125.2644(3) n
Ba Bi5 O 6_565 202_555 125.2644(3) n
Ba Bi5 O 6_565 211_565 54.7356(3) n
Ba Bi5 O 6_565 303_555 54.7356(7) n
Ba Bi5 O 6_565 309_556 125.2644(7) n
Ba Bi5 Ba 7_656 8_665 109.4712(7) n
Ba Bi5 Ba 7_656 9_566 109.4712(13) n
Ba Bi5 Ba 7_656 -1_666 70.5288(7) n
Ba Bi5 O 7_656 101_555 125.2644(3) n
Ba Bi5 O 7_656 110_655 54.7356(3) n
Ba Bi5 O 7_656 202_555 54.7356(3) n
Ba Bi5 O 7_656 211_565 125.2644(3) n
Ba Bi5 O 7_656 303_555 125.2644(7) n
Ba Bi5 O 7_656 309_556 54.7356(7) n
Ba Bi5 Ba 8_665 9_566 109.4712(7) n
Ba Bi5 Ba 8_665 -1_666 70.5288(13) n
Ba Bi5 O 8_665 101_555 125.2644(3) n
Ba Bi5 O 8_665 110_655 54.7356(3) n
Ba Bi5 O 8_665 202_555 125.2644(3) n
Ba Bi5 O 8_665 211_565 54.7356(3) n
Ba Bi5 O 8_665 303_555 54.7356(7) n
Ba Bi5 O 8_665 309_556 125.2644(7) n
Ba Bi5 Ba 9_566 -1_666 70.5288(7) n
Ba Bi5 O 9_566 101_555 54.7356(3) n
Ba Bi5 O 9_566 110_655 125.2644(3) n
Ba Bi5 O 9_566 202_555 125.2644(3) n
Ba Bi5 O 9_566 211_565 54.7356(3) n
Ba Bi5 O 9_566 303_555 125.2644(7) n
Ba Bi5 O 9_566 309_556 54.7356(7) n
Ba Bi5 O -1_666 101_555 125.2644(3) n
Ba Bi5 O -1_666 110_655 54.7356(3) n
Ba Bi5 O -1_666 202_555 125.2644(3) n
Ba Bi5 O -1_666 211_565 54.7356(3) n
Ba Bi5 O -1_666 303_555 125.2644(7) n
Ba Bi5 O -1_666 309_556 54.7356(7) n
O Bi5 O 101_555 110_655 180.0 n
O Bi5 O 101_555 202_555 90.0 n
O Bi5 O 101_555 211_565 90.0 n
O Bi5 O 101_555 303_555 90.0 n
O Bi5 O 101_555 309_556 90.0 n
O Bi5 O 110_655 202_555 90.0 n
O Bi5 O 110_655 211_565 90.0 n
O Bi5 O 110_655 303_555 90.0 n
O Bi5 O 110_655 309_556 90.0 n
O Bi5 O 202_555 211_565 180.0 n
O Bi5 O 202_555 303_555 90.0 n
O Bi5 O 202_555 309_556 90.0 n
O Bi5 O 211_565 303_555 90.0 n
O Bi5 O 211_565 309_556 90.0 n
O Bi5 O 303_555 309_556 180.0 n
Ba O Ba 1_555 4_555 89.947(3) n
Ba O Ba 1_555 6_555 89.947(3) n
Ba O Ba 1_555 9_555 176.52(7) n
Ba O Bi3 1_555 1_555 88.26(4) n
Ba O Bi5 1_555 101_544 91.74(4) n
Ba O Ba 4_555 6_555 176.52(7) n
Ba O Ba 4_555 9_555 89.947(3) n
Ba O Bi3 4_555 1_555 88.26(4) n
Ba O Bi5 4_555 101_544 91.74(4) n
Ba O Ba 6_555 9_555 89.947(3) n
Ba O Bi3 6_555 1_555 88.26(4) n
Ba O Bi5 6_555 101_544 91.74(4) n
Ba O Bi3 9_555 1_555 88.26(4) n
Ba O Bi5 9_555 101_544 91.74(4) n
Bi3 O Bi5 1_555 101_544 180.0 n
loop_
_geom_bond_atom_site_label_1
_geom_bond_atom_site_label_2
_geom_bond_site_symmetry_2
_geom_bond_distance
_geom_bond_publ_flag
Ba Ba 4_555 4.38793(8) n
Ba Ba 4_556 4.38793(8) n
Ba Ba 5_555 4.38793(8) n
Ba Ba 5_655 4.38793(8) n
Ba Ba 6_555 4.38793(8) n
Ba Ba 6_565 4.38793(8) n
Ba Bi3 1_555 3.80006(5) n
Ba Bi3 101_555 3.80006(5) n
Ba Bi3 201_555 3.80006(5) n
Ba Bi3 301_555 3.80006(5) n
Ba Bi5 1_555 3.80006(5) n
Ba Bi5 101_544 3.80006(5) n
Ba Bi5 201_454 3.80006(5) n
Ba Bi5 301_445 3.80006(5) n
Ba O 1_555 3.10416(7) n
Ba O 2_555 3.10416(7) n
Ba O 3_555 3.10416(8) n
Ba O 101_555 3.10416(7) n
Ba O 109_555 3.10416(8) n
Ba O 111_555 3.10416(7) n
Ba O 202_555 3.10416(7) n
Ba O 209_555 3.10416(8) n
Ba O 210_555 3.10416(7) n
Ba O 303_555 3.10416(8) n
Ba O 310_555 3.10416(7) n
Ba O 311_555 3.10416(7) n
Bi3 Ba 1_555 3.80006(5) n
Bi3 Ba 4_555 3.80006(5) n
Bi3 Ba 5_555 3.80006(5) n
Bi3 Ba 6_555 3.80006(5) n
Bi3 Ba 7_555 3.80006(5) n
Bi3 Ba 8_555 3.80006(5) n
Bi3 Ba 9_555 3.80006(5) n
Bi3 Ba -1_555 3.80006(5) n
Bi3 O 1_555 2.2882(19) n
Bi3 O 2_555 2.2882(19) n
Bi3 O 3_555 2.2882(19) n
Bi3 O 9_555 2.2882(19) n
Bi3 O 10_555 2.2882(19) n
Bi3 O 11_555 2.2882(19) n
Bi5 Ba 1_555 3.80006(5) n
Bi5 Ba 4_556 3.80006(5) n
Bi5 Ba 5_655 3.80006(5) n
Bi5 Ba 6_565 3.80006(5) n
Bi5 Ba 7_656 3.80006(5) n
Bi5 Ba 8_665 3.80006(5) n
Bi5 Ba 9_566 3.80006(5) n
Bi5 Ba -1_666 3.80006(5) n
Bi5 O 101_555 2.0998(19) n
Bi5 O 110_655 2.0998(19) n
Bi5 O 202_555 2.0998(19) n
Bi5 O 211_565 2.0998(19) n
Bi5 O 303_555 2.0998(19) n
Bi5 O 309_556 2.0998(19) n
O Ba 1_555 3.10416(7) n
O Ba 4_555 3.10416(7) n
O Ba 6_555 3.10416(7) n
O Ba 9_555 3.10416(7) n
O Bi3 1_555 2.2882(19) n
O Bi5 101_544 2.0998(19) n
