#(C) 2020 by FIZ Karlsruhe - Leibniz Institute for Information Infrastructure.  All rights reserved.
data_54697-ICSD
_database_code_ICSD 54697
_audit_creation_date 2005-10-01
_chemical_name_common 'Aluminium nitride'
_chemical_formula_structural 'Al N'
_chemical_formula_sum 'Al1 N1'
_chemical_name_structure_type Wurtzite#ZnS(2H)
_exptl_crystal_density_diffrn 3.26
_diffrn_ambient_temperature 301.
_citation_title 'Rietveld-refinement study of aluminium and gallium nitrides'
loop_
_citation_id
_citation_journal_full
_citation_year
_citation_journal_volume
_citation_page_first
_citation_page_last
_citation_journal_id_ASTM
primary 'Journal of Alloys and Compounds' 2004 382 100 106 JALCEU
loop_
_citation_author_citation_id
_citation_author_name
primary 'Paszkowicz, W.'
primary 'Podsiadlo, S.'
primary 'Minikayev, R.'
_cell_length_a 3.11197(2)
_cell_length_b 3.11197(2)
_cell_length_c 4.98089(4)
_cell_angle_alpha 90.
_cell_angle_beta 90.
_cell_angle_gamma 120.
_cell_volume 41.77
_cell_formula_units_Z 2
_space_group_name_H-M_alt 'P 63 m c'
_space_group_IT_number 186
loop_
_space_group_symop_id
_space_group_symop_operation_xyz
1 '-x, -x+y, z+1/2'
2 'x-y, -y, z+1/2'
3 'y, x, z+1/2'
4 'x-y, x, z+1/2'
5 'y, -x+y, z+1/2'
6 '-x, -y, z+1/2'
7 'x, x-y, z'
8 '-x+y, y, z'
9 '-y, -x, z'
10 '-x+y, -x, z'
11 '-y, x-y, z'
12 'x, y, z'
loop_
_atom_type_symbol
_atom_type_oxidation_number
Al3+ 3
N3- -3
loop_
_atom_site_label
_atom_site_type_symbol
_atom_site_symmetry_multiplicity
_atom_site_Wyckoff_symbol
_atom_site_fract_x
_atom_site_fract_y
_atom_site_fract_z
_atom_site_B_iso_or_equiv
_atom_site_occupancy
Al1 Al3+ 2 b 0.3333 0.6667 0 2.13(2) 1.
N1 N3- 2 b 0.3333 0.6667 0.3869(5) 1.87(4) 1.
#End of TTdata_54697-ICSD
