
#(C) 2020 by FIZ Karlsruhe - Leibniz Institute for Information Infrastructure.  All rights reserved.
data_99779-ICSD
_database_code_ICSD 99779
_audit_creation_date 2005-04-01
_chemical_name_common 'Titanium aluminide (3/1)'
_chemical_formula_structural 'Ti3 Al'
_chemical_formula_sum 'Al1 Ti3'
_chemical_name_structure_type Ni3Sn
_exptl_crystal_density_diffrn 4.22
_citation_title

;
High-temperature synchrotron X-ray diffraction study of phases in a \g Ti
Al alloy
;
loop_
_citation_id
_citation_journal_full
_citation_year
_citation_journal_volume
_citation_page_first
_citation_page_last
_citation_journal_id_ASTM
primary

;
Materials Science & Engineering, A: Structural Materials: Properties,
Microstructure and Processing
; 2004 371 103 112 MSAPE3
loop_
_citation_author_citation_id
_citation_author_name
primary 'Novoselova, T.'
primary 'Malinov, S.'
primary 'Sha, W.'
primary 'Zhecheva, A.'
_cell_length_a 5.764
_cell_length_b 5.764
_cell_length_c 4.664
_cell_angle_alpha 90
_cell_angle_beta 90
_cell_angle_gamma 120
_cell_volume 134.2
_cell_formula_units_Z 2
_space_group_name_H-M_alt 'P 63/m m c'
_space_group_IT_number 194
loop_
_atom_type_symbol
_atom_type_oxidation_number
Al0+ 0
Ti0+ 0
loop_
_atom_site_label
_atom_site_type_symbol
_atom_site_symmetry_multiplicity
_atom_site_Wyckoff_symbol
_atom_site_fract_x
_atom_site_fract_y
_atom_site_fract_z
_atom_site_B_iso_or_equiv
_atom_site_occupancy
Al1 Al0+ 2 c 0.3333 0.6667 0.25 . 1.
Ti1 Ti0+ 6 h 0.8333 0.1667 0.25 . 1.
loop_
_space_group_symop_id
_space_group_symop_operation_xyz
1 'x, x-y, -z+1/2'
2 '-x+y, y, -z+1/2'
3 '-y, -x, -z+1/2'
4 '-x+y, -x, -z+1/2'
5 '-y, x-y, -z+1/2'
6 'x, y, -z+1/2'
7 '-x, -x+y, z+1/2'
8 'x-y, -y, z+1/2'
9 'y, x, z+1/2'
10 'x-y, x, z+1/2'
11 'y, -x+y, z+1/2'
12 '-x, -y, z+1/2'
13 '-x, -x+y, -z'
14 'x-y, -y, -z'
15 'y, x, -z'
16 'x-y, x, -z'
17 'y, -x+y, -z'
18 '-x, -y, -z'
19 'x, x-y, z'
20 '-x+y, y, z'
21 '-y, -x, z'
22 '-x+y, -x, z'
23 '-y, x-y, z'
24 'x, y, z'
#End of TTdata_99779-ICSD