
#(C) 2015 by Fachinformationszentrum Karlsruhe.  All rights reserved.
data_95762-ICSD
_database_code_ICSD 95762
_audit_creation_date 2004-04-01
_audit_update_record 2006-04-01
_chemical_name_systematic 'Divanadium(III) oxide - LT'
_chemical_formula_structural 'V2 O3'
_chemical_formula_sum 'O3 V2'
_chemical_name_structure_type V2O3
_exptl_crystal_density_diffrn 4.97
_cell_measurement_temperature 165.
_publ_section_title

;
Comparative structural and electrical studies of V2 O3 and V2-x Nix O3 (0 < x < 0.75) solid solution
;
loop_
_citation_id
_citation_journal_full
_citation_year
_citation_journal_volume
_citation_page_first
_citation_page_last
_citation_journal_id_ASTM
primary 'Zeitschrift fuer Anorganische und Allgemeine Chemie (1950) (DE)' 2002 628 1236 1242 ZAACAB
loop_
_publ_author_name
'Rozier, P.'
'Ratuszna, A.'
'Galy, J.'
_cell_length_a 7.2727(4)
_cell_length_b 5.0027(3)
_cell_length_c 5.5432(3)
_cell_angle_alpha 90
_cell_angle_beta 96.762(2)
_cell_angle_gamma 90
_cell_volume 200.28
_cell_formula_units_Z 4
#_symmetry_space_group_name_H-M 'I 1 2/a 1'
# 'I 1 2/a 1'  15:b3   'with origin at -1 on a-glide plane.' http://img.chem.ucl.ac.uk/sgp/large/015gy1.htm
### _symmetry_Int_Tables_number 15
_refine_ls_R_factor_all 0.055
loop_
_symmetry_equiv_pos_site_id
_symmetry_equiv_pos_as_xyz
1 'x+1/2, -y, z'
2 '-x, -y, -z'
3 '-x+1/2, y, -z'
4 'x, y, z'
5 'x, -y+1/2, z+1/2'
6 '-x+1/2, -y+1/2, -z+1/2'
7 '-x, y+1/2, -z+1/2'
8 'x+1/2, y+1/2, z+1/2'
loop_
_atom_type_symbol
_atom_type_oxidation_number
V3+ 3
O2- -2
loop_
_atom_site_label
_atom_site_type_symbol
_atom_site_symmetry_multiplicity
_atom_site_Wyckoff_symbol
_atom_site_fract_x
_atom_site_fract_y
_atom_site_fract_z
_atom_site_B_iso_or_equiv
_atom_site_occupancy
_atom_site_attached_hydrogens
V1 V3+ 8 f 0.3449(3) 0.009(1) 0.2983(4) 0.10(5) 1. 0
O1 O2- 8 f 0.407(1) 0.845(1) 0.645(1) 0.46(5) 1. 0
O2 O2- 4 e 0.25 0.183(2) 0 0.46(5) 1. 0
#End of TTdata_95762-ICSD